! Sonnet Data File
! From: em Version : 15.53-Lite
! From Project: shorted_tl
! Data is De-embedded 
! Data File Written: 08/09/2019 21:19:30
!< HDATE 02/08/2019 20:00:37
!< MDATE 08/09/2019 21:16:38
# MHZ S RI R 50.00000
0.100000000000000 -0.999753470405 3.0470531081e-4
!< P1 F=0.1 Eeff=(undefined: sl) Z0=(undefined: sl) R=0.0 C=0.0 
1.100000000000000 -0.999707265088 0.0045857314555
!< P1 F=1.1 Eeff=(3.78230961 -0.302856) Z0=(21.4002269 -0.4520676) R=1515.55752 C=1.42110606 
100.1000000000000 -0.901954740384 0.4259252405936
!< P1 F=100.1 Eeff=(3.73731854 -0.0850192) Z0=(21.2438042 0.15848171) R=16.647705 C=1.42078737 
200.1000000000000 -0.439313565486 0.8839425624525
!< P1 F=200.1 Eeff=(3.73358087 -0.0807583) Z0=(21.2278424 0.17040888) R=8.3182576 C=1.41985023 
250.1000000000000 0.1203338045055 0.9619556288880
!< P1 F=250.1 Eeff=(3.73289766 -0.0796786) Z0=(21.2221639 0.17351788) R=6.64969589 C=1.41916446 
300.1000000000000 0.8059146771612 0.4796851766352
!< P1 F=300.1 Eeff=(3.73258393 -0.07889) Z0=(21.2168483 0.17584652) R=5.53635145 C=1.41834576 
400.1000000000000 0.0855676193877 -0.930012189103
!< P1 F=400.1 Eeff=(3.73266319 -0.0778083) Z0=(21.2063497 0.17919064) R=4.14311372 C=1.41635624 
500.1000000000000 -0.731460824110 -0.625245214618
!< P1 F=500.1 Eeff=(3.7333541 -0.0771016) Z0=(21.1954601 0.18154985) R=3.30627159 C=1.41399132 
600.1000000000000 -0.953045877835 -0.192202166721
!< P1 F=600.1 Eeff=(3.73442996 -0.0766067) Z0=(21.1839737 0.18335283) R=2.74839901 C=1.41138292 
700.1000000000000 -0.948266909932 0.2106080292173
!< P1 F=700.1 Eeff=(3.73573476 -0.0762417) Z0=(21.1717269 0.18481932) R=2.35059783 C=1.40867842 
750.1000000000000 -0.869648407081 0.4203220422815
!< P1 F=750.1 Eeff=(3.73643104 -0.0760921) Z0=(21.1651817 0.18547753) R=2.19189607 C=1.40733868 
800.0999999999999 -0.707705224895 0.6395604386320
!< P1 F=800.1 Eeff=(3.73713492 -0.0759584) Z0=(21.1581927 0.18611511) R=2.05337365 C=1.40603354 
900.0999999999999 0.1324376997135 0.8701020658458
!< P1 F=900.1 Eeff=(3.73849686 -0.0757236) Z0=(21.1418371 0.18746465) R=1.82358207 C=1.40360403 
1000.100000000000 0.6427722955858 -0.481752568235
!< P1 F=1000.1 Eeff=(3.73965759 -0.0755074) Z0=(21.1184097 0.18940972) R=1.64120488 C=1.40153733 
